M 0.00000 0 (257.90, 628.62, 0.00), (537.85, 767.67), 12.11
M 0.00000 1 (712.18, 361.39, 0.00), (540.79, 561.80), 12.15
M 0.00000 2 (25.04, 703.24, 0.00), (771.55, 212.48), 12.29
M 0.00000 3 (694.38, 202.45, 0.00), (288.61, 731.69), 10.26
M 0.00000 4 (291.39, 259.89, 0.00), (1.12, 255.98), 10.55
M 0.00000 5 (491.68, 94.42, 0.00), (402.94, 100.70), 12.32
M 0.00000 6 (393.87, 139.43, 0.00), (246.63, 542.89), 13.03
M 0.00000 7 (684.71, 437.01, 0.00), (387.42, 477.70), 13.77
M 0.00000 8 (479.86, 169.36, 0.00), (221.50, 484.62), 11.82
M 0.00000 9 (373.76, 456.65, 0.00), (436.84, 497.39), 14.79
s 0.500000000 _1_ AGT  --- 0 cbr 1000 [0 0 0 0] ------- [1:0 2:0 32 0] [0] 0 6
r 0.500000000 _1_ RTR  --- 0 cbr 1000 [0 0 0 0] ------- [1:0 2:0 32 0] [0] 0 6
s 0.500000000 _1_ AGT  --- 1 cbr 24 [0 0 0 0] ------- [1:0 2:0 32 0] [1] 0 6
r 0.500000000 _1_ RTR  --- 1 cbr 24 [0 0 0 0] ------- [1:0 2:0 32 0] [1] 0 6
s 0.500000000 _4_ AGT  --- 2 cbr 512 [0 0 0 0] ------- [4:0 9:0 32 0] [0] 0 1
r 0.500000000 _4_ RTR  --- 2 cbr 512 [0 0 0 0] ------- [4:0 9:0 32 0] [0] 0 1
s 0.500000000 _1_ RTR  --- 0 AODV 48 [0 0 0 0] ------- [1:255 -1:255 30 0] [0x2 1 1 [2 0] [1 4]] (REQUEST)
s 0.500000000 _4_ RTR  --- 0 AODV 48 [0 0 0 0] ------- [4:255 -1:255 30 0] [0x2 1 1 [9 0] [4 4]] (REQUEST)
s 0.500375000 _4_ MAC  --- 0 AODV 106 [0 ffffffff 4 800] ------- [4:255 -1:255 30 0] [0x2 1 1 [9 0] [4 4]] (REQUEST)
r 0.501223518 _6_ MAC  --- 0 AODV 48 [0 ffffffff 4 800] ------- [4:255 -1:255 30 0] [0x2 1 1 [9 0] [4 4]] (REQUEST)
r 0.501223695 _8_ MAC  --- 0 AODV 48 [0 ffffffff 4 800] ------- [4:255 -1:255 30 0] [0x2 1 1 [9 0] [4 4]] (REQUEST)
r 0.501223739 _9_ MAC  --- 0 AODV 48 [0 ffffffff 4 800] ------- [4:255 -1:255 30 0] [0x2 1 1 [9 0] [4 4]] (REQUEST)
r 0.501248518 _6_ RTR  --- 0 AODV 48 [0 ffffffff 4 800] ------- [4:255 -1:255 30 0] [0x2 1 1 [9 0] [4 4]] (REQUEST)
r 0.501248695 _8_ RTR  --- 0 AODV 48 [0 ffffffff 4 800] ------- [4:255 -1:255 30 0] [0x2 1 1 [9 0] [4 4]] (REQUEST)
r 0.501248739 _9_ RTR  --- 0 AODV 48 [0 ffffffff 4 800] ------- [4:255 -1:255 30 0] [0x2 1 1 [9 0] [4 4]] (REQUEST)
s 0.501248739 _9_ RTR  --- 0 AODV 44 [0 0 0 0] ------- [9:255 4:255 30 4] [0x4 1 [9 4] 10.000000] (REPLY)
s 0.501503739 _9_ MAC  --- 0 ARP 86 [0 ffffffff 9 806] ------- [REQUEST 9/9 0/4]
r 0.502192428 _0_ MAC  --- 0 ARP 28 [0 ffffffff 9 806] ------- [REQUEST 9/9 0/4]
r 0.502192478 _4_ MAC  --- 0 ARP 28 [0 ffffffff 9 806] ------- [REQUEST 9/9 0/4]
s 0.502342478 _4_ MAC  --- 0 RTS 44 [52e 9 4 0] 
r 0.502695217 _9_ MAC  --- 0 RTS 44 [52e 9 4 0] 
s 0.502705217 _9_ MAC  --- 0 CTS 38 [3f4 4 0 0] 
r 0.503009956 _4_ MAC  --- 0 CTS 38 [3f4 4 0 0] 
s 0.503019956 _4_ MAC  --- 0 ARP 86 [13a 9 4 806] ------- [REPLY 4/4 9/9]
r 0.503708696 _9_ MAC  --- 0 ARP 28 [13a 9 4 806] ------- [REPLY 4/4 9/9]
s 0.503718696 _9_ MAC  --- 0 ACK 38 [0 4 0 0] 
r 0.504023435 _4_ MAC  --- 0 ACK 38 [0 4 0 0] 
s 0.504212696 _9_ MAC  --- 0 RTS 44 [5ae 4 9 0] 
s 0.504378313 _8_ RTR  --- 0 AODV 48 [0 ffffffff 4 800] ------- [8:255 -1:255 29 0] [0x2 2 1 [9 0] [4 4]] (REQUEST)
r 0.504565435 _4_ MAC  --- 0 RTS 44 [5ae 4 9 0] 
s 0.504575435 _4_ MAC  --- 0 CTS 38 [474 9 0 0] 
r 0.504880174 _9_ MAC  --- 0 CTS 38 [474 9 0 0] 
s 0.504890174 _9_ MAC  --- 0 AODV 102 [13a 4 9 800] ------- [9:255 4:255 30 4] [0x4 1 [9 4] 10.000000] (REPLY)
r 0.505706913 _4_ MAC  --- 0 AODV 44 [13a 4 9 800] ------- [9:255 4:255 30 4] [0x4 1 [9 4] 10.000000] (REPLY)
s 0.505716913 _4_ MAC  --- 0 ACK 38 [0 9 0 0] 
r 0.505731913 _4_ RTR  --- 0 AODV 44 [13a 4 9 800] ------- [9:255 4:255 30 4] [0x4 1 [9 4] 10.000000] (REPLY)
s 0.505731913 _4_ RTR  --- 2 cbr 532 [0 0 0 0] ------- [4:0 9:0 30 9] [0] 0 1
r 0.506021653 _9_ MAC  --- 0 ACK 38 [0 9 0 0] 
s 0.506290913 _4_ MAC  --- 0 RTS 44 [14ee 9 4 0] 
r 0.506643653 _9_ MAC  --- 0 RTS 44 [14ee 9 4 0] 
s 0.506653653 _9_ MAC  --- 0 CTS 38 [13b4 4 0 0] 
r 0.506958392 _4_ MAC  --- 0 CTS 38 [13b4 4 0 0] 
s 0.506968392 _4_ MAC  --- 2 cbr 590 [13a 9 4 800] ------- [4:0 9:0 30 9] [0] 0 1
s 0.509240073 _6_ RTR  --- 0 AODV 48 [0 ffffffff 4 800] ------- [6:255 -1:255 29 0] [0x2 2 1 [9 0] [4 4]] (REQUEST)
r 0.511689131 _9_ MAC  --- 2 cbr 532 [13a 9 4 800] ------- [4:0 9:0 30 9] [0] 1 1
s 0.511699131 _9_ MAC  --- 0 ACK 38 [0 4 0 0] 
r 0.511714131 _9_ AGT  --- 2 cbr 532 [13a 9 4 800] ------- [4:0 9:0 30 9] [0] 1 1
r 0.512003871 _4_ MAC  --- 0 ACK 38 [0 4 0 0] 
s 0.512458182 _6_ MAC  --- 0 AODV 106 [0 ffffffff 6 800] ------- [6:255 -1:255 29 0] [0x2 2 1 [9 0] [4 4]] (REQUEST)
r 0.513306479 _8_ MAC  --- 0 AODV 48 [0 ffffffff 6 800] ------- [6:255 -1:255 29 0] [0x2 2 1 [9 0] [4 4]] (REQUEST)
r 0.513306538 _5_ MAC  --- 0 AODV 48 [0 ffffffff 6 800] ------- [6:255 -1:255 29 0] [0x2 2 1 [9 0] [4 4]] (REQUEST)
r 0.513306700 _4_ MAC  --- 0 AODV 48 [0 ffffffff 6 800] ------- [6:255 -1:255 29 0] [0x2 2 1 [9 0] [4 4]] (REQUEST)
r 0.513331479 _8_ RTR  --- 0 AODV 48 [0 ffffffff 6 800] ------- [6:255 -1:255 29 0] [0x2 2 1 [9 0] [4 4]] (REQUEST)
r 0.513331538 _5_ RTR  --- 0 AODV 48 [0 ffffffff 6 800] ------- [6:255 -1:255 29 0] [0x2 2 1 [9 0] [4 4]] (REQUEST)
r 0.513331700 _4_ RTR  --- 0 AODV 48 [0 ffffffff 6 800] ------- [6:255 -1:255 29 0] [0x2 2 1 [9 0] [4 4]] (REQUEST)
s 0.513416479 _8_ MAC  --- 0 AODV 106 [0 ffffffff 8 800] ------- [8:255 -1:255 29 0] [0x2 2 1 [9 0] [4 4]] (REQUEST)
r 0.514264745 _5_ MAC  --- 0 AODV 48 [0 ffffffff 8 800] ------- [8:255 -1:255 29 0] [0x2 2 1 [9 0] [4 4]] (REQUEST)
r 0.514264776 _6_ MAC  --- 0 AODV 48 [0 ffffffff 8 800] ------- [8:255 -1:255 29 0] [0x2 2 1 [9 0] [4 4]] (REQUEST)
r 0.514265174 _4_ MAC  --- 0 AODV 48 [0 ffffffff 8 800] ------- [8:255 -1:255 29 0] [0x2 2 1 [9 0] [4 4]] (REQUEST)
r 0.514265205 _3_ MAC  --- 0 AODV 48 [0 ffffffff 8 800] ------- [8:255 -1:255 29 0] [0x2 2 1 [9 0] [4 4]] (REQUEST)
r 0.514289745 _5_ RTR  --- 0 AODV 48 [0 ffffffff 8 800] ------- [8:255 -1:255 29 0] [0x2 2 1 [9 0] [4 4]] (REQUEST)
r 0.514289776 _6_ RTR  --- 0 AODV 48 [0 ffffffff 8 800] ------- [8:255 -1:255 29 0] [0x2 2 1 [9 0] [4 4]] (REQUEST)
r 0.514290174 _4_ RTR  --- 0 AODV 48 [0 ffffffff 8 800] ------- [8:255 -1:255 29 0] [0x2 2 1 [9 0] [4 4]] (REQUEST)
r 0.514290205 _3_ RTR  --- 0 AODV 48 [0 ffffffff 8 800] ------- [8:255 -1:255 29 0] [0x2 2 1 [9 0] [4 4]] (REQUEST)
s 0.514469620 _5_ RTR  --- 0 AODV 48 [0 ffffffff 6 800] ------- [5:255 -1:255 28 0] [0x2 3 1 [9 0] [4 4]] (REQUEST)
s 0.514899483 _1_ MAC  --- 0 AODV 106 [0 ffffffff 1 800] ------- [1:255 -1:255 30 0] [0x2 1 1 [2 0] [1 4]] (REQUEST)
r 0.515747743 _7_ MAC  --- 0 AODV 48 [0 ffffffff 1 800] ------- [1:255 -1:255 30 0] [0x2 1 1 [2 0] [1 4]] (REQUEST)
r 0.515748018 _3_ MAC  --- 0 AODV 48 [0 ffffffff 1 800] ------- [1:255 -1:255 30 0] [0x2 1 1 [2 0] [1 4]] (REQUEST)
r 0.515772743 _7_ RTR  --- 0 AODV 48 [0 ffffffff 1 800] ------- [1:255 -1:255 30 0] [0x2 1 1 [2 0] [1 4]] (REQUEST)
r 0.515773018 _3_ RTR  --- 0 AODV 48 [0 ffffffff 1 800] ------- [1:255 -1:255 30 0] [0x2 1 1 [2 0] [1 4]] (REQUEST)
s 0.516302653 _5_ MAC  --- 0 AODV 106 [0 ffffffff 5 800] ------- [5:255 -1:255 28 0] [0x2 3 1 [9 0] [4 4]] (REQUEST)
r 0.517150919 _8_ MAC  --- 0 AODV 48 [0 ffffffff 5 800] ------- [5:255 -1:255 28 0] [0x2 3 1 [9 0] [4 4]] (REQUEST)
r 0.517151009 _6_ MAC  --- 0 AODV 48 [0 ffffffff 5 800] ------- [5:255 -1:255 28 0] [0x2 3 1 [9 0] [4 4]] (REQUEST)
r 0.517151434 _3_ MAC  --- 0 AODV 48 [0 ffffffff 5 800] ------- [5:255 -1:255 28 0] [0x2 3 1 [9 0] [4 4]] (REQUEST)
r 0.517175919 _8_ RTR  --- 0 AODV 48 [0 ffffffff 5 800] ------- [5:255 -1:255 28 0] [0x2 3 1 [9 0] [4 4]] (REQUEST)
r 0.517176009 _6_ RTR  --- 0 AODV 48 [0 ffffffff 5 800] ------- [5:255 -1:255 28 0] [0x2 3 1 [9 0] [4 4]] (REQUEST)
r 0.517176434 _3_ RTR  --- 0 AODV 48 [0 ffffffff 5 800] ------- [5:255 -1:255 28 0] [0x2 3 1 [9 0] [4 4]] (REQUEST)
s 0.518526772 _3_ RTR  --- 0 AODV 48 [0 ffffffff 8 800] ------- [3:255 -1:255 28 0] [0x2 3 1 [9 0] [4 4]] (REQUEST)
s 0.518621772 _3_ MAC  --- 0 AODV 106 [0 ffffffff 3 800] ------- [3:255 -1:255 28 0] [0x2 3 1 [9 0] [4 4]] (REQUEST)
s 0.519260428 _3_ RTR  --- 0 AODV 48 [0 ffffffff 1 800] ------- [3:255 -1:255 29 0] [0x2 2 1 [2 0] [1 4]] (REQUEST)
r 0.519470307 _1_ MAC  --- 0 AODV 48 [0 ffffffff 3 800] ------- [3:255 -1:255 28 0] [0x2 3 1 [9 0] [4 4]] (REQUEST)
r 0.519470497 _8_ MAC  --- 0 AODV 48 [0 ffffffff 3 800] ------- [3:255 -1:255 28 0] [0x2 3 1 [9 0] [4 4]] (REQUEST)
r 0.519470544 _7_ MAC  --- 0 AODV 48 [0 ffffffff 3 800] ------- [3:255 -1:255 28 0] [0x2 3 1 [9 0] [4 4]] (REQUEST)
r 0.519470553 _5_ MAC  --- 0 AODV 48 [0 ffffffff 3 800] ------- [3:255 -1:255 28 0] [0x2 3 1 [9 0] [4 4]] (REQUEST)
r 0.519495307 _1_ RTR  --- 0 AODV 48 [0 ffffffff 3 800] ------- [3:255 -1:255 28 0] [0x2 3 1 [9 0] [4 4]] (REQUEST)
r 0.519495497 _8_ RTR  --- 0 AODV 48 [0 ffffffff 3 800] ------- [3:255 -1:255 28 0] [0x2 3 1 [9 0] [4 4]] (REQUEST)
r 0.519495544 _7_ RTR  --- 0 AODV 48 [0 ffffffff 3 800] ------- [3:255 -1:255 28 0] [0x2 3 1 [9 0] [4 4]] (REQUEST)
r 0.519495553 _5_ RTR  --- 0 AODV 48 [0 ffffffff 3 800] ------- [3:255 -1:255 28 0] [0x2 3 1 [9 0] [4 4]] (REQUEST)
s 0.519759772 _3_ MAC  --- 0 AODV 106 [0 ffffffff 3 800] ------- [3:255 -1:255 29 0] [0x2 2 1 [2 0] [1 4]] (REQUEST)
r 0.520608307 _1_ MAC  --- 0 AODV 48 [0 ffffffff 3 800] ------- [3:255 -1:255 29 0] [0x2 2 1 [2 0] [1 4]] (REQUEST)
r 0.520608497 _8_ MAC  --- 0 AODV 48 [0 ffffffff 3 800] ------- [3:255 -1:255 29 0] [0x2 2 1 [2 0] [1 4]] (REQUEST)
r 0.520608544 _7_ MAC  --- 0 AODV 48 [0 ffffffff 3 800] ------- [3:255 -1:255 29 0] [0x2 2 1 [2 0] [1 4]] (REQUEST)
r 0.520608553 _5_ MAC  --- 0 AODV 48 [0 ffffffff 3 800] ------- [3:255 -1:255 29 0] [0x2 2 1 [2 0] [1 4]] (REQUEST)
r 0.520633307 _1_ RTR  --- 0 AODV 48 [0 ffffffff 3 800] ------- [3:255 -1:255 29 0] [0x2 2 1 [2 0] [1 4]] (REQUEST)
r 0.520633497 _8_ RTR  --- 0 AODV 48 [0 ffffffff 3 800] ------- [3:255 -1:255 29 0] [0x2 2 1 [2 0] [1 4]] (REQUEST)
r 0.520633544 _7_ RTR  --- 0 AODV 48 [0 ffffffff 3 800] ------- [3:255 -1:255 29 0] [0x2 2 1 [2 0] [1 4]] (REQUEST)
r 0.520633553 _5_ RTR  --- 0 AODV 48 [0 ffffffff 3 800] ------- [3:255 -1:255 29 0] [0x2 2 1 [2 0] [1 4]] (REQUEST)
s 0.522805147 _5_ RTR  --- 0 AODV 48 [0 ffffffff 3 800] ------- [5:255 -1:255 28 0] [0x2 3 1 [2 0] [1 4]] (REQUEST)
s 0.523240147 _5_ MAC  --- 0 AODV 106 [0 ffffffff 5 800] ------- [5:255 -1:255 28 0] [0x2 3 1 [2 0] [1 4]] (REQUEST)
s 0.523843029 _7_ RTR  --- 0 AODV 48 [0 ffffffff 1 800] ------- [7:255 -1:255 29 0] [0x2 2 1 [2 0] [1 4]] (REQUEST)
r 0.524088413 _8_ MAC  --- 0 AODV 48 [0 ffffffff 5 800] ------- [5:255 -1:255 28 0] [0x2 3 1 [2 0] [1 4]] (REQUEST)
r 0.524088503 _6_ MAC  --- 0 AODV 48 [0 ffffffff 5 800] ------- [5:255 -1:255 28 0] [0x2 3 1 [2 0] [1 4]] (REQUEST)
r 0.524088928 _3_ MAC  --- 0 AODV 48 [0 ffffffff 5 800] ------- [5:255 -1:255 28 0] [0x2 3 1 [2 0] [1 4]] (REQUEST)
r 0.524113413 _8_ RTR  --- 0 AODV 48 [0 ffffffff 5 800] ------- [5:255 -1:255 28 0] [0x2 3 1 [2 0] [1 4]] (REQUEST)
r 0.524113503 _6_ RTR  --- 0 AODV 48 [0 ffffffff 5 800] ------- [5:255 -1:255 28 0] [0x2 3 1 [2 0] [1 4]] (REQUEST)
r 0.524113928 _3_ RTR  --- 0 AODV 48 [0 ffffffff 5 800] ------- [5:255 -1:255 28 0] [0x2 3 1 [2 0] [1 4]] (REQUEST)
s 0.524156466 _1_ RTR  --- 0 AODV 48 [0 ffffffff 3 800] ------- [1:255 -1:255 27 0] [0x2 4 1 [9 0] [4 4]] (REQUEST)
s 0.524543458 _7_ MAC  --- 0 AODV 106 [0 ffffffff 7 800] ------- [7:255 -1:255 29 0] [0x2 2 1 [2 0] [1 4]] (REQUEST)
s 0.525016979 _1_ AGT  --- 3 cbr 1000 [0 0 0 0] ------- [1:0 2:0 32 0] [2] 0 6
r 0.525016979 _1_ RTR  --- 3 cbr 1000 [0 0 0 0] ------- [1:0 2:0 32 0] [2] 0 6
s 0.525016979 _1_ AGT  --- 4 cbr 24 [0 0 0 0] ------- [1:0 2:0 32 0] [3] 0 6
r 0.525016979 _1_ RTR  --- 4 cbr 24 [0 0 0 0] ------- [1:0 2:0 32 0] [3] 0 6
r 0.525391718 _1_ MAC  --- 0 AODV 48 [0 ffffffff 7 800] ------- [7:255 -1:255 29 0] [0x2 2 1 [2 0] [1 4]] (REQUEST)
r 0.525392231 _3_ MAC  --- 0 AODV 48 [0 ffffffff 7 800] ------- [7:255 -1:255 29 0] [0x2 2 1 [2 0] [1 4]] (REQUEST)
r 0.525416718 _1_ RTR  --- 0 AODV 48 [0 ffffffff 7 800] ------- [7:255 -1:255 29 0] [0x2 2 1 [2 0] [1 4]] (REQUEST)
r 0.525417231 _3_ RTR  --- 0 AODV 48 [0 ffffffff 7 800] ------- [7:255 -1:255 29 0] [0x2 2 1 [2 0] [1 4]] (REQUEST)
s 0.525541718 _1_ MAC  --- 0 AODV 106 [0 ffffffff 1 800] ------- [1:255 -1:255 27 0] [0x2 4 1 [9 0] [4 4]] (REQUEST)
r 0.526389978 _7_ MAC  --- 0 AODV 48 [0 ffffffff 1 800] ------- [1:255 -1:255 27 0] [0x2 4 1 [9 0] [4 4]] (REQUEST)
r 0.526390253 _3_ MAC  --- 0 AODV 48 [0 ffffffff 1 800] ------- [1:255 -1:255 27 0] [0x2 4 1 [9 0] [4 4]] (REQUEST)
r 0.526414978 _7_ RTR  --- 0 AODV 48 [0 ffffffff 1 800] ------- [1:255 -1:255 27 0] [0x2 4 1 [9 0] [4 4]] (REQUEST)
r 0.526415253 _3_ RTR  --- 0 AODV 48 [0 ffffffff 1 800] ------- [1:255 -1:255 27 0] [0x2 4 1 [9 0] [4 4]] (REQUEST)
s 0.526418613 _7_ RTR  --- 0 AODV 48 [0 ffffffff 3 800] ------- [7:255 -1:255 27 0] [0x2 4 1 [9 0] [4 4]] (REQUEST)
s 0.526619978 _7_ MAC  --- 0 AODV 106 [0 ffffffff 7 800] ------- [7:255 -1:255 27 0] [0x2 4 1 [9 0] [4 4]] (REQUEST)
r 0.527468238 _1_ MAC  --- 0 AODV 48 [0 ffffffff 7 800] ------- [7:255 -1:255 27 0] [0x2 4 1 [9 0] [4 4]] (REQUEST)
r 0.527468750 _3_ MAC  --- 0 AODV 48 [0 ffffffff 7 800] ------- [7:255 -1:255 27 0] [0x2 4 1 [9 0] [4 4]] (REQUEST)
r 0.527493238 _1_ RTR  --- 0 AODV 48 [0 ffffffff 7 800] ------- [7:255 -1:255 27 0] [0x2 4 1 [9 0] [4 4]] (REQUEST)
r 0.527493750 _3_ RTR  --- 0 AODV 48 [0 ffffffff 7 800] ------- [7:255 -1:255 27 0] [0x2 4 1 [9 0] [4 4]] (REQUEST)
s 0.529031749 _8_ RTR  --- 0 AODV 48 [0 ffffffff 3 800] ------- [8:255 -1:255 28 0] [0x2 3 1 [2 0] [1 4]] (REQUEST)
s 0.529626749 _8_ MAC  --- 0 AODV 106 [0 ffffffff 8 800] ------- [8:255 -1:255 28 0] [0x2 3 1 [2 0] [1 4]] (REQUEST)
r 0.530475016 _5_ MAC  --- 0 AODV 48 [0 ffffffff 8 800] ------- [8:255 -1:255 28 0] [0x2 3 1 [2 0] [1 4]] (REQUEST)
r 0.530475046 _6_ MAC  --- 0 AODV 48 [0 ffffffff 8 800] ------- [8:255 -1:255 28 0] [0x2 3 1 [2 0] [1 4]] (REQUEST)
r 0.530475444 _4_ MAC  --- 0 AODV 48 [0 ffffffff 8 800] ------- [8:255 -1:255 28 0] [0x2 3 1 [2 0] [1 4]] (REQUEST)
r 0.530475475 _3_ MAC  --- 0 AODV 48 [0 ffffffff 8 800] ------- [8:255 -1:255 28 0] [0x2 3 1 [2 0] [1 4]] (REQUEST)
r 0.530500016 _5_ RTR  --- 0 AODV 48 [0 ffffffff 8 800] ------- [8:255 -1:255 28 0] [0x2 3 1 [2 0] [1 4]] (REQUEST)
r 0.530500046 _6_ RTR  --- 0 AODV 48 [0 ffffffff 8 800] ------- [8:255 -1:255 28 0] [0x2 3 1 [2 0] [1 4]] (REQUEST)
r 0.530500444 _4_ RTR  --- 0 AODV 48 [0 ffffffff 8 800] ------- [8:255 -1:255 28 0] [0x2 3 1 [2 0] [1 4]] (REQUEST)
r 0.530500475 _3_ RTR  --- 0 AODV 48 [0 ffffffff 8 800] ------- [8:255 -1:255 28 0] [0x2 3 1 [2 0] [1 4]] (REQUEST)
s 0.531735822 _6_ RTR  --- 0 AODV 48 [0 ffffffff 5 800] ------- [6:255 -1:255 27 0] [0x2 4 1 [2 0] [1 4]] (REQUEST)
s 0.532390822 _6_ MAC  --- 0 AODV 106 [0 ffffffff 6 800] ------- [6:255 -1:255 27 0] [0x2 4 1 [2 0] [1 4]] (REQUEST)
r 0.533239118 _8_ MAC  --- 0 AODV 48 [0 ffffffff 6 800] ------- [6:255 -1:255 27 0] [0x2 4 1 [2 0] [1 4]] (REQUEST)
r 0.533239177 _5_ MAC  --- 0 AODV 48 [0 ffffffff 6 800] ------- [6:255 -1:255 27 0] [0x2 4 1 [2 0] [1 4]] (REQUEST)
r 0.533239340 _4_ MAC  --- 0 AODV 48 [0 ffffffff 6 800] ------- [6:255 -1:255 27 0] [0x2 4 1 [2 0] [1 4]] (REQUEST)
r 0.533264118 _8_ RTR  --- 0 AODV 48 [0 ffffffff 6 800] ------- [6:255 -1:255 27 0] [0x2 4 1 [2 0] [1 4]] (REQUEST)
r 0.533264177 _5_ RTR  --- 0 AODV 48 [0 ffffffff 6 800] ------- [6:255 -1:255 27 0] [0x2 4 1 [2 0] [1 4]] (REQUEST)
r 0.533264340 _4_ RTR  --- 0 AODV 48 [0 ffffffff 6 800] ------- [6:255 -1:255 27 0] [0x2 4 1 [2 0] [1 4]] (REQUEST)
s 0.539413922 _4_ RTR  --- 0 AODV 48 [0 ffffffff 8 800] ------- [4:255 -1:255 27 0] [0x2 4 1 [2 0] [1 4]] (REQUEST)
s 0.539608922 _4_ MAC  --- 0 AODV 106 [0 ffffffff 4 800] ------- [4:255 -1:255 27 0] [0x2 4 1 [2 0] [1 4]] (REQUEST)
r 0.540457440 _6_ MAC  --- 0 AODV 48 [0 ffffffff 4 800] ------- [4:255 -1:255 27 0] [0x2 4 1 [2 0] [1 4]] (REQUEST)
r 0.540457617 _8_ MAC  --- 0 AODV 48 [0 ffffffff 4 800] ------- [4:255 -1:255 27 0] [0x2 4 1 [2 0] [1 4]] (REQUEST)
r 0.540457664 _9_ MAC  --- 0 AODV 48 [0 ffffffff 4 800] ------- [4:255 -1:255 27 0] [0x2 4 1 [2 0] [1 4]] (REQUEST)
r 0.540482440 _6_ RTR  --- 0 AODV 48 [0 ffffffff 4 800] ------- [4:255 -1:255 27 0] [0x2 4 1 [2 0] [1 4]] (REQUEST)
r 0.540482617 _8_ RTR  --- 0 AODV 48 [0 ffffffff 4 800] ------- [4:255 -1:255 27 0] [0x2 4 1 [2 0] [1 4]] (REQUEST)
r 0.540482664 _9_ RTR  --- 0 AODV 48 [0 ffffffff 4 800] ------- [4:255 -1:255 27 0] [0x2 4 1 [2 0] [1 4]] (REQUEST)
s 0.543839291 _9_ RTR  --- 0 AODV 48 [0 ffffffff 4 800] ------- [9:255 -1:255 26 0] [0x2 5 1 [2 0] [1 4]] (REQUEST)
s 0.544194291 _9_ MAC  --- 0 AODV 106 [0 ffffffff 9 800] ------- [9:255 -1:255 26 0] [0x2 5 1 [2 0] [1 4]] (REQUEST)
r 0.545042980 _0_ MAC  --- 0 AODV 48 [0 ffffffff 9 800] ------- [9:255 -1:255 26 0] [0x2 5 1 [2 0] [1 4]] (REQUEST)
r 0.545043033 _4_ MAC  --- 0 AODV 48 [0 ffffffff 9 800] ------- [9:255 -1:255 26 0] [0x2 5 1 [2 0] [1 4]] (REQUEST)
r 0.545067980 _0_ RTR  --- 0 AODV 48 [0 ffffffff 9 800] ------- [9:255 -1:255 26 0] [0x2 5 1 [2 0] [1 4]] (REQUEST)
r 0.545068033 _4_ RTR  --- 0 AODV 48 [0 ffffffff 9 800] ------- [9:255 -1:255 26 0] [0x2 5 1 [2 0] [1 4]] (REQUEST)
s 0.547637918 _0_ RTR  --- 0 AODV 48 [0 ffffffff 9 800] ------- [0:255 -1:255 25 0] [0x2 6 1 [2 0] [1 4]] (REQUEST)
s 0.548192918 _0_ MAC  --- 0 AODV 106 [0 ffffffff 0 800] ------- [0:255 -1:255 25 0] [0x2 6 1 [2 0] [1 4]] (REQUEST)
r 0.549041606 _9_ MAC  --- 0 AODV 48 [0 ffffffff 0 800] ------- [0:255 -1:255 25 0] [0x2 6 1 [2 0] [1 4]] (REQUEST)
r 0.549041727 _2_ MAC  --- 0 AODV 48 [0 ffffffff 0 800] ------- [0:255 -1:255 25 0] [0x2 6 1 [2 0] [1 4]] (REQUEST)
r 0.549066606 _9_ RTR  --- 0 AODV 48 [0 ffffffff 0 800] ------- [0:255 -1:255 25 0] [0x2 6 1 [2 0] [1 4]] (REQUEST)
r 0.549066727 _2_ RTR  --- 0 AODV 48 [0 ffffffff 0 800] ------- [0:255 -1:255 25 0] [0x2 6 1 [2 0] [1 4]] (REQUEST)
s 0.549066727 _2_ RTR  --- 0 AODV 44 [0 0 0 0] ------- [2:255 1:255 30 0] [0x4 1 [2 4] 10.000000] (REPLY)
s 0.549341727 _2_ MAC  --- 0 ARP 86 [0 ffffffff 2 806] ------- [REQUEST 2/2 0/0]
r 0.550030537 _0_ MAC  --- 0 ARP 28 [0 ffffffff 2 806] ------- [REQUEST 2/2 0/0]
s 0.550245537 _0_ MAC  --- 0 RTS 44 [52e 2 0 0] 
r 0.550598346 _2_ MAC  --- 0 RTS 44 [52e 2 0 0] 
s 0.550608346 _2_ MAC  --- 0 CTS 38 [3f4 0 0 0] 
r 0.550913156 _0_ MAC  --- 0 CTS 38 [3f4 0 0 0] 
s 0.550923156 _0_ MAC  --- 0 ARP 86 [13a 2 0 806] ------- [REPLY 0/0 2/2]
r 0.551611965 _2_ MAC  --- 0 ARP 28 [13a 2 0 806] ------- [REPLY 0/0 2/2]
s 0.551621965 _2_ MAC  --- 0 ACK 38 [0 0 0 0] 
r 0.551926775 _0_ MAC  --- 0 ACK 38 [0 0 0 0] 
s 0.552135965 _2_ MAC  --- 0 RTS 44 [5ae 0 2 0] 
r 0.552488775 _0_ MAC  --- 0 RTS 44 [5ae 0 2 0] 
s 0.552498775 _0_ MAC  --- 0 CTS 38 [474 2 0 0] 
r 0.552803585 _2_ MAC  --- 0 CTS 38 [474 2 0 0] 
s 0.552813585 _2_ MAC  --- 0 AODV 102 [13a 0 2 800] ------- [2:255 1:255 30 0] [0x4 1 [2 4] 10.000000] (REPLY)
r 0.553630394 _0_ MAC  --- 0 AODV 44 [13a 0 2 800] ------- [2:255 1:255 30 0] [0x4 1 [2 4] 10.000000] (REPLY)
s 0.553640394 _0_ MAC  --- 0 ACK 38 [0 2 0 0] 
r 0.553655394 _0_ RTR  --- 0 AODV 44 [13a 0 2 800] ------- [2:255 1:255 30 0] [0x4 1 [2 4] 10.000000] (REPLY)
f 0.553655394 _0_ RTR  --- 0 AODV 44 [13a 0 2 800] ------- [2:255 1:255 29 9] [0x4 2 [2 4] 10.000000] (REPLY)
r 0.553945204 _2_ MAC  --- 0 ACK 38 [0 2 0 0] 
s 0.554074394 _0_ MAC  --- 0 RTS 44 [5ae 9 0 0] 
r 0.554427083 _9_ MAC  --- 0 RTS 44 [5ae 9 0 0] 
s 0.554437083 _9_ MAC  --- 0 CTS 38 [474 0 0 0] 
r 0.554741772 _0_ MAC  --- 0 CTS 38 [474 0 0 0] 
s 0.554751772 _0_ MAC  --- 0 AODV 102 [13a 9 0 800] ------- [2:255 1:255 29 9] [0x4 2 [2 4] 10.000000] (REPLY)
r 0.555568461 _9_ MAC  --- 0 AODV 44 [13a 9 0 800] ------- [2:255 1:255 29 9] [0x4 2 [2 4] 10.000000] (REPLY)
s 0.555578461 _9_ MAC  --- 0 ACK 38 [0 0 0 0] 
r 0.555593461 _9_ RTR  --- 0 AODV 44 [13a 9 0 800] ------- [2:255 1:255 29 9] [0x4 2 [2 4] 10.000000] (REPLY)
f 0.555593461 _9_ RTR  --- 0 AODV 44 [13a 9 0 800] ------- [2:255 1:255 28 4] [0x4 3 [2 4] 10.000000] (REPLY)
r 0.555883149 _0_ MAC  --- 0 ACK 38 [0 0 0 0] 
s 0.556232461 _9_ MAC  --- 0 RTS 44 [5ae 4 9 0] 
r 0.556585203 _4_ MAC  --- 0 RTS 44 [5ae 4 9 0] 
s 0.556595203 _4_ MAC  --- 0 CTS 38 [474 9 0 0] 
r 0.556899945 _9_ MAC  --- 0 CTS 38 [474 9 0 0] 
s 0.556909945 _9_ MAC  --- 0 AODV 102 [13a 4 9 800] ------- [2:255 1:255 28 4] [0x4 3 [2 4] 10.000000] (REPLY)
r 0.557726687 _4_ MAC  --- 0 AODV 44 [13a 4 9 800] ------- [2:255 1:255 28 4] [0x4 3 [2 4] 10.000000] (REPLY)
s 0.557736687 _4_ MAC  --- 0 ACK 38 [0 9 0 0] 
r 0.557751687 _4_ RTR  --- 0 AODV 44 [13a 4 9 800] ------- [2:255 1:255 28 4] [0x4 3 [2 4] 10.000000] (REPLY)
f 0.557751687 _4_ RTR  --- 0 AODV 44 [13a 4 9 800] ------- [2:255 1:255 27 8] [0x4 4 [2 4] 10.000000] (REPLY)
r 0.558041430 _9_ MAC  --- 0 ACK 38 [0 9 0 0] 
s 0.558330687 _4_ MAC  --- 0 ARP 86 [0 ffffffff 4 806] ------- [REQUEST 4/4 0/8]
r 0.559019205 _6_ MAC  --- 0 ARP 28 [0 ffffffff 4 806] ------- [REQUEST 4/4 0/8]
r 0.559019382 _8_ MAC  --- 0 ARP 28 [0 ffffffff 4 806] ------- [REQUEST 4/4 0/8]
r 0.559019430 _9_ MAC  --- 0 ARP 28 [0 ffffffff 4 806] ------- [REQUEST 4/4 0/8]
s 0.559094382 _8_ MAC  --- 0 RTS 44 [52e 4 8 0] 
r 0.559447077 _4_ MAC  --- 0 RTS 44 [52e 4 8 0] 
s 0.559457077 _4_ MAC  --- 0 CTS 38 [3f4 8 0 0] 
r 0.559761772 _8_ MAC  --- 0 CTS 38 [3f4 8 0 0] 
s 0.559771772 _8_ MAC  --- 0 ARP 86 [13a 4 8 806] ------- [REPLY 8/8 4/4]
r 0.560460467 _4_ MAC  --- 0 ARP 28 [13a 4 8 806] ------- [REPLY 8/8 4/4]
s 0.560470467 _4_ MAC  --- 0 ACK 38 [0 8 0 0] 
r 0.560775161 _8_ MAC  --- 0 ACK 38 [0 8 0 0] 
s 0.561084467 _4_ MAC  --- 0 RTS 44 [5ae 8 4 0] 
r 0.561437161 _8_ MAC  --- 0 RTS 44 [5ae 8 4 0] 
s 0.561447161 _8_ MAC  --- 0 CTS 38 [474 4 0 0] 
r 0.561751856 _4_ MAC  --- 0 CTS 38 [474 4 0 0] 
s 0.561761856 _4_ MAC  --- 0 AODV 102 [13a 8 4 800] ------- [2:255 1:255 27 8] [0x4 4 [2 4] 10.000000] (REPLY)
r 0.562578551 _8_ MAC  --- 0 AODV 44 [13a 8 4 800] ------- [2:255 1:255 27 8] [0x4 4 [2 4] 10.000000] (REPLY)
s 0.562588551 _8_ MAC  --- 0 ACK 38 [0 4 0 0] 
r 0.562603551 _8_ RTR  --- 0 AODV 44 [13a 8 4 800] ------- [2:255 1:255 27 8] [0x4 4 [2 4] 10.000000] (REPLY)
f 0.562603551 _8_ RTR  --- 0 AODV 44 [13a 8 4 800] ------- [2:255 1:255 26 3] [0x4 5 [2 4] 10.000000] (REPLY)
r 0.562893246 _4_ MAC  --- 0 ACK 38 [0 4 0 0] 
s 0.563182551 _8_ MAC  --- 0 ARP 86 [0 ffffffff 8 806] ------- [REQUEST 8/8 0/3]
r 0.563870818 _5_ MAC  --- 0 ARP 28 [0 ffffffff 8 806] ------- [REQUEST 8/8 0/3]
r 0.563870847 _6_ MAC  --- 0 ARP 28 [0 ffffffff 8 806] ------- [REQUEST 8/8 0/3]
r 0.563871246 _4_ MAC  --- 0 ARP 28 [0 ffffffff 8 806] ------- [REQUEST 8/8 0/3]
r 0.563871277 _3_ MAC  --- 0 ARP 28 [0 ffffffff 8 806] ------- [REQUEST 8/8 0/3]
s 0.564226277 _3_ MAC  --- 0 RTS 44 [52e 8 3 0] 
r 0.564579002 _8_ MAC  --- 0 RTS 44 [52e 8 3 0] 
s 0.564589002 _8_ MAC  --- 0 CTS 38 [3f4 3 0 0] 
r 0.564893728 _3_ MAC  --- 0 CTS 38 [3f4 3 0 0] 
s 0.564903728 _3_ MAC  --- 0 ARP 86 [13a 8 3 806] ------- [REPLY 3/3 8/8]
r 0.565592453 _8_ MAC  --- 0 ARP 28 [13a 8 3 806] ------- [REPLY 3/3 8/8]
s 0.565602453 _8_ MAC  --- 0 ACK 38 [0 3 0 0] 
r 0.565907179 _3_ MAC  --- 0 ACK 38 [0 3 0 0] 
s 0.565996453 _8_ MAC  --- 0 RTS 44 [5ae 3 8 0] 
r 0.566349179 _3_ MAC  --- 0 RTS 44 [5ae 3 8 0] 
s 0.566359179 _3_ MAC  --- 0 CTS 38 [474 8 0 0] 
r 0.566663904 _8_ MAC  --- 0 CTS 38 [474 8 0 0] 
s 0.566673904 _8_ MAC  --- 0 AODV 102 [13a 3 8 800] ------- [2:255 1:255 26 3] [0x4 5 [2 4] 10.000000] (REPLY)
r 0.567490630 _3_ MAC  --- 0 AODV 44 [13a 3 8 800] ------- [2:255 1:255 26 3] [0x4 5 [2 4] 10.000000] (REPLY)
s 0.567500630 _3_ MAC  --- 0 ACK 38 [0 8 0 0] 
r 0.567515630 _3_ RTR  --- 0 AODV 44 [13a 3 8 800] ------- [2:255 1:255 26 3] [0x4 5 [2 4] 10.000000] (REPLY)
f 0.567515630 _3_ RTR  --- 0 AODV 44 [13a 3 8 800] ------- [2:255 1:255 25 1] [0x4 6 [2 4] 10.000000] (REPLY)
r 0.567805355 _8_ MAC  --- 0 ACK 38 [0 8 0 0] 
s 0.568274630 _3_ MAC  --- 0 ARP 86 [0 ffffffff 3 806] ------- [REQUEST 3/3 0/1]
r 0.568963165 _1_ MAC  --- 0 ARP 28 [0 ffffffff 3 806] ------- [REQUEST 3/3 0/1]
r 0.568963356 _8_ MAC  --- 0 ARP 28 [0 ffffffff 3 806] ------- [REQUEST 3/3 0/1]
r 0.568963401 _7_ MAC  --- 0 ARP 28 [0 ffffffff 3 806] ------- [REQUEST 3/3 0/1]
r 0.568963412 _5_ MAC  --- 0 ARP 28 [0 ffffffff 3 806] ------- [REQUEST 3/3 0/1]
s 0.569118165 _1_ MAC  --- 0 RTS 44 [52e 3 1 0] 
r 0.569470700 _3_ MAC  --- 0 RTS 44 [52e 3 1 0] 
s 0.569480700 _3_ MAC  --- 0 CTS 38 [3f4 1 0 0] 
r 0.569785234 _1_ MAC  --- 0 CTS 38 [3f4 1 0 0] 
s 0.569795234 _1_ MAC  --- 0 ARP 86 [13a 3 1 806] ------- [REPLY 1/1 3/3]
s 0.570292933 _1_ AGT  --- 5 cbr 1000 [0 0 0 0] ------- [1:0 2:0 32 0] [4] 0 6
r 0.570292933 _1_ RTR  --- 5 cbr 1000 [0 0 0 0] ------- [1:0 2:0 32 0] [4] 0 6
s 0.570292933 _1_ AGT  --- 6 cbr 24 [0 0 0 0] ------- [1:0 2:0 32 0] [5] 0 6
r 0.570292933 _1_ RTR  --- 6 cbr 24 [0 0 0 0] ------- [1:0 2:0 32 0] [5] 0 6
r 0.570483769 _3_ MAC  --- 0 ARP 28 [13a 3 1 806] ------- [REPLY 1/1 3/3]
s 0.570493769 _3_ MAC  --- 0 ACK 38 [0 1 0 0] 
r 0.570798304 _1_ MAC  --- 0 ACK 38 [0 1 0 0] 
s 0.570947769 _3_ MAC  --- 0 RTS 44 [5ae 1 3 0] 
r 0.571300304 _1_ MAC  --- 0 RTS 44 [5ae 1 3 0] 
s 0.571310304 _1_ MAC  --- 0 CTS 38 [474 3 0 0] 
r 0.571614839 _3_ MAC  --- 0 CTS 38 [474 3 0 0] 
s 0.571624839 _3_ MAC  --- 0 AODV 102 [13a 1 3 800] ------- [2:255 1:255 25 1] [0x4 6 [2 4] 10.000000] (REPLY)
r 0.572441374 _1_ MAC  --- 0 AODV 44 [13a 1 3 800] ------- [2:255 1:255 25 1] [0x4 6 [2 4] 10.000000] (REPLY)
s 0.572451374 _1_ MAC  --- 0 ACK 38 [0 3 0 0] 
r 0.572466374 _1_ RTR  --- 0 AODV 44 [13a 1 3 800] ------- [2:255 1:255 25 1] [0x4 6 [2 4] 10.000000] (REPLY)
s 0.572466374 _1_ RTR  --- 0 cbr 1020 [0 0 0 0] ------- [1:0 2:0 30 3] [0] 0 6
r 0.572755909 _3_ MAC  --- 0 ACK 38 [0 3 0 0] 
s 0.572965374 _1_ MAC  --- 0 RTS 44 [242e 3 1 0] 
r 0.573317909 _3_ MAC  --- 0 RTS 44 [242e 3 1 0] 
s 0.573327909 _3_ MAC  --- 0 CTS 38 [22f4 1 0 0] 
r 0.573632443 _1_ MAC  --- 0 CTS 38 [22f4 1 0 0] 
s 0.573642443 _1_ MAC  --- 0 cbr 1078 [13a 3 1 800] ------- [1:0 2:0 30 3] [0] 0 6
r 0.582266978 _3_ MAC  --- 0 cbr 1020 [13a 3 1 800] ------- [1:0 2:0 30 3] [0] 1 6
s 0.582276978 _3_ MAC  --- 0 ACK 38 [0 1 0 0] 
r 0.582291978 _3_ RTR  --- 0 cbr 1020 [13a 3 1 800] ------- [1:0 2:0 30 3] [0] 1 6
f 0.582291978 _3_ RTR  --- 0 cbr 1020 [13a 3 1 800] ------- [1:0 2:0 29 8] [0] 1 6
s 0.582466374 _1_ RTR  --- 1 cbr 44 [0 0 0 0] ------- [1:0 2:0 30 3] [1] 0 6
r 0.582581513 _1_ MAC  --- 0 ACK 38 [0 1 0 0] 
s 0.582670978 _3_ MAC  --- 0 RTS 44 [242e 8 3 0] 
r 0.583023704 _8_ MAC  --- 0 RTS 44 [242e 8 3 0] 
s 0.583033704 _8_ MAC  --- 0 CTS 38 [22f4 3 0 0] 
r 0.583338430 _3_ MAC  --- 0 CTS 38 [22f4 3 0 0] 
s 0.583348430 _3_ MAC  --- 0 cbr 1078 [13a 8 3 800] ------- [1:0 2:0 29 8] [0] 1 6
r 0.591973155 _8_ MAC  --- 0 cbr 1020 [13a 8 3 800] ------- [1:0 2:0 29 8] [0] 2 6
s 0.591983155 _8_ MAC  --- 0 ACK 38 [0 3 0 0] 
r 0.591998155 _8_ RTR  --- 0 cbr 1020 [13a 8 3 800] ------- [1:0 2:0 29 8] [0] 2 6
f 0.591998155 _8_ RTR  --- 0 cbr 1020 [13a 8 3 800] ------- [1:0 2:0 28 4] [0] 2 6
r 0.592287881 _3_ MAC  --- 0 ACK 38 [0 3 0 0] 
s 0.592466374 _1_ RTR  --- 3 cbr 1020 [0 0 0 0] ------- [1:0 2:0 30 3] [2] 0 6
s 0.592677155 _8_ MAC  --- 0 RTS 44 [242e 4 8 0] 
r 0.593029850 _4_ MAC  --- 0 RTS 44 [242e 4 8 0] 
s 0.593039850 _4_ MAC  --- 0 CTS 38 [22f4 8 0 0] 
r 0.593344545 _8_ MAC  --- 0 CTS 38 [22f4 8 0 0] 
s 0.593354545 _8_ MAC  --- 0 cbr 1078 [13a 4 8 800] ------- [1:0 2:0 28 4] [0] 2 6
r 0.601979239 _4_ MAC  --- 0 cbr 1020 [13a 4 8 800] ------- [1:0 2:0 28 4] [0] 3 6
s 0.601989239 _4_ MAC  --- 0 ACK 38 [0 8 0 0] 
r 0.602004239 _4_ RTR  --- 0 cbr 1020 [13a 4 8 800] ------- [1:0 2:0 28 4] [0] 3 6
f 0.602004239 _4_ RTR  --- 0 cbr 1020 [13a 4 8 800] ------- [1:0 2:0 27 9] [0] 3 6
r 0.602293934 _8_ MAC  --- 0 ACK 38 [0 8 0 0] 
s 0.602463239 _4_ MAC  --- 0 RTS 44 [242e 9 4 0] 
s 0.602466374 _1_ RTR  --- 4 cbr 44 [0 0 0 0] ------- [1:0 2:0 30 3] [3] 0 6
r 0.602815984 _9_ MAC  --- 0 RTS 44 [242e 9 4 0] 
s 0.602825984 _9_ MAC  --- 0 CTS 38 [22f4 4 0 0] 
r 0.603130729 _4_ MAC  --- 0 CTS 38 [22f4 4 0 0] 
s 0.603140729 _4_ MAC  --- 0 cbr 1078 [13a 9 4 800] ------- [1:0 2:0 27 9] [0] 3 6
r 0.611765474 _9_ MAC  --- 0 cbr 1020 [13a 9 4 800] ------- [1:0 2:0 27 9] [0] 4 6
s 0.611775474 _9_ MAC  --- 0 ACK 38 [0 4 0 0] 
r 0.611790474 _9_ RTR  --- 0 cbr 1020 [13a 9 4 800] ------- [1:0 2:0 27 9] [0] 4 6
f 0.611790474 _9_ RTR  --- 0 cbr 1020 [13a 9 4 800] ------- [1:0 2:0 26 0] [0] 4 6
r 0.612080219 _4_ MAC  --- 0 ACK 38 [0 4 0 0] 
s 0.612466374 _1_ RTR  --- 5 cbr 1020 [0 0 0 0] ------- [1:0 2:0 30 3] [4] 0 6
s 0.612514605 _1_ MAC  --- 0 RTS 44 [5ae 3 1 0] 
r 0.612867140 _3_ MAC  --- 0 RTS 44 [5ae 3 1 0] 
s 0.612877140 _3_ MAC  --- 0 CTS 38 [474 1 0 0] 
r 0.613181675 _1_ MAC  --- 0 CTS 38 [474 1 0 0] 
s 0.613191675 _1_ MAC  --- 1 cbr 102 [13a 3 1 800] ------- [1:0 2:0 30 3] [1] 0 6
r 0.614008210 _3_ MAC  --- 1 cbr 44 [13a 3 1 800] ------- [1:0 2:0 30 3] [1] 1 6
s 0.614018210 _3_ MAC  --- 0 ACK 38 [0 1 0 0] 
r 0.614033210 _3_ RTR  --- 1 cbr 44 [13a 3 1 800] ------- [1:0 2:0 30 3] [1] 1 6
f 0.614033210 _3_ RTR  --- 1 cbr 44 [13a 3 1 800] ------- [1:0 2:0 29 8] [1] 1 6
r 0.614322745 _1_ MAC  --- 0 ACK 38 [0 1 0 0] 
s 0.614612210 _3_ MAC  --- 0 RTS 44 [5ae 8 3 0] 
r 0.614964936 _8_ MAC  --- 0 RTS 44 [5ae 8 3 0] 
s 0.614974936 _8_ MAC  --- 0 CTS 38 [474 3 0 0] 
r 0.615279662 _3_ MAC  --- 0 CTS 38 [474 3 0 0] 
s 0.615289662 _3_ MAC  --- 1 cbr 102 [13a 8 3 800] ------- [1:0 2:0 29 8] [1] 1 6
r 0.616106387 _8_ MAC  --- 1 cbr 44 [13a 8 3 800] ------- [1:0 2:0 29 8] [1] 2 6
s 0.616116387 _8_ MAC  --- 0 ACK 38 [0 3 0 0] 
r 0.616131387 _8_ RTR  --- 1 cbr 44 [13a 8 3 800] ------- [1:0 2:0 29 8] [1] 2 6
f 0.616131387 _8_ RTR  --- 1 cbr 44 [13a 8 3 800] ------- [1:0 2:0 28 4] [1] 2 6
s 0.616353935 _1_ AGT  --- 7 cbr 1000 [0 0 0 0] ------- [1:0 2:0 32 0] [6] 0 6
r 0.616353935 _1_ RTR  --- 7 cbr 1000 [0 0 0 0] ------- [1:0 2:0 32 0] [6] 0 6
s 0.616353935 _1_ AGT  --- 8 cbr 24 [0 0 0 0] ------- [1:0 2:0 32 0] [7] 0 6
r 0.616353935 _1_ RTR  --- 8 cbr 24 [0 0 0 0] ------- [1:0 2:0 32 0] [7] 0 6
s 0.616353935 _1_ RTR  --- 7 cbr 1020 [0 0 0 0] ------- [1:0 2:0 30 3] [6] 0 6